                  Welcome to Q-Chem
     A Quantum Leap Into The Future Of Chemistry


 Q-Chem 5.3 (devel), Q-Chem, Inc., Pleasanton, CA (2020)

 Yihan Shao,  Zhengting Gan,  E. Epifanovsky,  A. T. B. Gilbert,  M. Wormit,  
 J. Kussmann,  A. W. Lange,  A. Behn,  Jia Deng,  Xintian Feng,  D. Ghosh,  
 M. Goldey,  P. R. Horn,  L. D. Jacobson,  I. Kaliman,  T. Kus,  A. Landau,  
 Jie Liu,  E. I. Proynov,  R. M. Richard,  R. P. Steele,  E. J. Sundstrom,  
 H. L. Woodcock III,  P. M. Zimmerman,  D. Zuev,  B. Alam,  B. Albrecht,  
 A. Aldossary,  E. Alguire,  S. A. Baeppler,  D. Barton,  Z. Benda,  
 Y. A. Bernard,  E. J. Berquist,  K. B. Bravaya,  H. Burton,  K. Carter-Fenk,  
 D. Casanova,  Chun-Min Chang,  Yunqing Chen,  A. Chien,  K. D. Closser,  
 M. P. Coons,  S. Coriani,  S. Dasgupta,  A. L. Dempwolff,  M. Diedenhofen,  
 Hainam Do,  R. G. Edgar,  Po-Tung Fang,  S. Faraji,  S. Fatehi,  
 Qingguo Feng,  J. Fosso-Tande,  J. Gayvert,  Qinghui Ge,  A. Ghysels,  
 G. Gidofalvi,  J. Gomes,  J. Gonthier,  S. Gulania,  A. Gunina,  D. Hait,  
 M. W. D. Hanson-Heine,  S. Hammes-Schiffer,  P. H. P. Harbach,  
 A. W. Hauser,  M. F. Herbst,  J. E. Herr,  E. G. Hohenstein,  Z. C. Holden,  
 S. Houck,  Kerwin Hui,  B. C. Huynh,  M. Ivanov,  T.-C. Jagau,  Hyunjun Ji,  
 B. Kaduk,  K. Khistyaev,  Jaehoon Kim,  P. Klunzinger,  K. Koh,  
 D. Kosenkov,  L. Koulias,  T. Kowalczyk,  C. M. Krauter,  A. Kunitsa,  
 Ka Un Lao,  A. Laurent,  K. V. Lawler,  Joonho Lee,  D. Lefrancois,  
 S. Lehtola,  D. S. Levine,  Yi-Pei Li,  You-Sheng Lin,  Fenglai Liu,  
 Kuan-Yu Liu,  E. Livshits,  M. Loipersberger,  A. Luenser,  A. Manjanath,  
 P. Manohar,  E. Mansoor,  S. F. Manzer,  Shan-Ping Mao,  Yuezhi Mao,  
 N. Mardirossian,  A. V. Marenich,  T. Markovich,  L. A. Martinez-Martinez,  
 S. A. Maurer,  N. J. Mayhall,  S. C. McKenzie,  J.-M. Mewes,  P. Morgante,  
 A. F. Morrison,  J. W. Mullinax,  K. Nanda,  T. S. Nguyen-Beck,  
 R. Olivares-Amaya,  K. J. Oosterbaan,  J. A. Parkhill,  S. K. Paul,  
 F. Pavosevic,  Zheng Pei,  T. M. Perrine,  F. Plasser,  P. Pokhilko,  
 S. Prager,  A. Prociuk,  E. Ramos,  B. Rana,  D. R. Rehn,  F. Rob,  
 E. Rossomme,  M. Scheurer,  M. Schneider,  N. Sergueev,  S. M. Sharada,  
 S. Sharma,  W. Skomorowski,  D. W. Small,  T. Stauch,  C. J. Stein,  
 T. Stein,  Yu-Chuan Su,  S. P. Veccham,  Zhen Tao,  A. J. W. Thom,  
 A. Tkatchenko,  T. Tsuchimochi,  N. M. Tubman,  L. Vogt,  M. L. Vidal,  
 O. Vydrov,  M. A. Watson,  J. Wenzel,  M. de Wergifosse,  T. A. Wesolowski,  
 A. White,  J. Witte,  A. Yamada,  Jun Yang,  K. Yao,  S. Yeganeh,  
 S. R. Yost,  Zhi-Qiang You,  A. Zech,  Igor Ying Zhang,  Xing Zhang,  
 Yan Zhao,  Ying Zhu,  B. R. Brooks,  G. K. L. Chan,  C. J. Cramer,  
 M. S. Gordon,  W. J. Hehre,  A. Klamt,  M. W. Schmidt,  C. D. Sherrill,  
 D. G. Truhlar,  A. Aspuru-Guzik,  R. Baer,  A. T. Bell,  N. A. Besley,  
 Jeng-Da Chai,  A. E. DePrince, III,  R. A. DiStasio Jr.,  A. Dreuw,  
 B. D. Dunietz,  T. R. Furlani,  Chao-Ping Hsu,  Yousung Jung,  Jing Kong,  
 D. S. Lambrecht,  WanZhen Liang,  C. Ochsenfeld,  V. A. Rassolov,  
 L. V. Slipchenko,  J. E. Subotnik,  T. Van Voorhis,  J. M. Herbert,  
 A. I. Krylov,  P. M. W. Gill,  M. Head-Gordon

 Contributors to earlier versions of Q-Chem not listed above: 
 R. D. Adamson,  B. Austin,  J. Baker,  G. J. O. Beran,  K. Brandhorst,  
 S. T. Brown,  E. F. C. Byrd,  A. K. Chakraborty,  C.-L. Cheng,  
 Siu Hung Chien,  D. M. Chipman,  D. L. Crittenden,  H. Dachsel,  
 R. J. Doerksen,  A. D. Dutoi,  L. Fusti-Molnar,  W. A. Goddard III,  
 A. Golubeva-Zadorozhnaya,  S. R. Gwaltney,  G. Hawkins,  A. Heyden,  
 S. Hirata,  G. Kedziora,  F. J. Keil,  C. Kelley,  Jihan Kim,  R. A. King,  
 R. Z. Khaliullin,  P. P. Korambath,  W. Kurlancheek,  A. M. Lee,  M. S. Lee,  
 S. V. Levchenko,  Ching Yeh Lin,  D. Liotard,  R. C. Lochan,  I. Lotan,  
 P. E. Maslen,  N. Nair,  D. P. O'Neill,  D. Neuhauser,  E. Neuscamman,  
 C. M. Oana,  R. Olson,  B. Peters,  R. Peverati,  P. A. Pieniazek,  
 Y. M. Rhee,  J. Ritchie,  M. A. Rohrdanz,  E. Rosta,  N. J. Russ,  
 H. F. Schaefer III,  N. E. Schultz,  N. Shenvi,  A. C. Simmonett,  A. Sodt,  
 D. Stuck,  K. S. Thanthiriwatte,  V. Vanovschi,  Tao Wang,  A. Warshel,  
 C. F. Williams,  Q. Wu,  X. Xu,  W. Zhang

 Please cite Q-Chem as follows:
 Y. Shao et al., Mol. Phys. 113, 184-215 (2015)
 DOI: 10.1080/00268976.2014.952696

 Q-Chem 5.3.2 for Intel X86 EM64T Linux

 Parts of Q-Chem use Armadillo 9.800.1 (Horizon Scraper).
 http://arma.sourceforge.net/

 Q-Chem begins on Sat Mar 22 15:11:23 2025  

Host: landau26
0

     Scratch files written to /home/scr/malachi//home/scr/malachi/scratch/input/P_396.in.j%//
Processing $rem in /opt/qchem5.4_omp/config/preferences:
Processing $rem in /usr/people/tamars/malachi/.qchemrc:

Checking the input file for inconsistencies... 	...done.

--------------------------------------------------------------
User input:
--------------------------------------------------------------
$molecule
    1 2
    O        -0.0589468554    0.2678084446    0.0000000000
    H        -0.9158854857   -0.1614307441    0.0000000000
    H         0.5742936224   -0.4515745405    0.0000000000
$end

$rem
    jobtype     SP
    exchange    gen
    lrc_dft     TRUE
    omega       396
    basis       def2-TZVPP
$end

$xc_functional
    C   PBE     1.0
    X   wPBE    0.8
    K           0.2
$end
--------------------------------------------------------------
 ----------------------------------------------------------------
             Standard Nuclear Orientation (Angstroms)
    I     Atom           X                Y                Z
 ----------------------------------------------------------------
    1      O       0.0000106350    -0.1170202440     0.0000000000
    2      H      -0.7591237599     0.4680481859     0.0000000000
    3      H       0.7590386795     0.4681137660    -0.0000000000
 ----------------------------------------------------------------
 Molecular Point Group                 Cs    NOp =  2
 Largest Abelian Subgroup              Cs    NOp =  2
 Nuclear Repulsion Energy =           9.18282577 hartrees
 There are        5 alpha and        4 beta electrons
 Requested basis set is def2-TZVPP
 There are 23 shells and 59 basis functions

 Total QAlloc Memory Limit   2000 MB
 Mega-Array Size       188 MB
 MEM_STATIC part       192 MB

                       Distance Matrix (Angstroms)
             O (  1)   H (  2)
   H (  2)  0.958431
   H (  3)  0.958387  1.518162

 A cutoff of  1.0D-08 yielded    276 shell pairs
 There are      1852 function pairs (      2337 Cartesian)
 Smallest overlap matrix eigenvalue = 2.25E-03

 Scale SEOQF with 1.000000e+00/1.000000e+00/1.000000e+00

 Standard Electronic Orientation quadrupole field applied
 Nucleus-field energy     =     0.0000000008 hartrees
 Guess from superposition of atomic densities
 Warning:  Energy on first SCF cycle will be non-variational
 SAD guess density has 10.000000 electrons

 -----------------------------------------------------------------------
  General SCF calculation program by
  Eric Jon Sundstrom, Paul Horn, Yuezhi Mao, Dmitri Zuev, Alec White,
  David Stuck, Shaama M.S., Shane Yost, Joonho Lee, David Small,
  Daniel Levine, Susi Lehtola, Hugh Burton, Evgeny Epifanovsky,
  Bang C. Huynh
 -----------------------------------------------------------------------
 Exchange:     0.2000 Hartree-Fock + 0.8000 wPBE + LR-HF
 Correlation:  1.0000 PBE
 Using SG-1 standard quadrature grid
 using 16 threads for integral computing
 -------------------------------------------------------
 OpenMP Integral computing Module                
 Release: version 1.0, May 2013, Q-Chem Inc. Pittsburgh 
 -------------------------------------------------------
 using 16 threads for integral computing
 -------------------------------------------------------
 OpenMP Integral computing Module                
 Release: version 1.0, May 2013, Q-Chem Inc. Pittsburgh 
 -------------------------------------------------------
 using 16 threads for integral computing
 -------------------------------------------------------
 OpenMP Integral computing Module                
 Release: version 1.0, May 2013, Q-Chem Inc. Pittsburgh 
 -------------------------------------------------------
 A unrestricted SCF calculation will be
 performed using DIIS
 SCF converges when DIIS error is below 1.0e-05
 ---------------------------------------
  Cycle       Energy         DIIS error
 ---------------------------------------
    1     -76.2929967217      2.75e-02  
    2     -75.9032631316      5.03e-03  
    3     -75.9393785959      2.68e-03  
    4     -75.9460923660      4.44e-04  
    5     -75.9463675995      1.02e-04  
    6     -75.9463903788      3.08e-05  
    7     -75.9463940740      8.15e-06  Convergence criterion met
 ---------------------------------------
 SCF time:   CPU 38.65s  wall 4.00s 
<S^2> =          0.752882452
 SCF   energy in the final basis set =      -75.9463940740
 Total energy in the final basis set =      -75.9463940740

 --------------------------------------------------------------
             Orbital Energies (a.u.) and Symmetries
 --------------------------------------------------------------

 Alpha MOs, Unrestricted
 -- Occupied --                  
-19.849  -1.718  -1.158  -1.040  -1.023
  1 A'    2 A'    3 A'    1 A"    4 A'                                         
 -- Virtual --                   
 -0.184  -0.104   0.140   0.172   0.179   0.186   0.324   0.334
  5 A'    6 A'    7 A'    2 A"    8 A'    9 A'   10 A'   11 A'                 
  0.411   0.432   0.528   0.801   0.939   1.008   1.432   1.464
 12 A'    3 A"    4 A"   13 A'   14 A'   15 A'    5 A"   16 A'                 
  1.465   1.516   1.582   1.829   2.097   2.169   2.396   2.790
  6 A"   17 A'   18 A'   19 A'   20 A'    7 A"   21 A'    8 A"                 
  2.891   2.990   2.994   3.010   3.124   3.256   3.346   3.372
 22 A'    9 A"   23 A'   24 A'   25 A'   26 A'   27 A'   10 A"                 
  3.385   3.735   3.798   3.830   3.903   4.319   4.333   4.472
 11 A"   12 A"   13 A"   28 A'   29 A'   30 A'   31 A'   32 A'                 
  4.665   5.238   5.791   6.004   6.010   6.155   6.228   6.231
 33 A'   14 A"   34 A'   15 A"   16 A"   17 A"   35 A'   36 A'                 
  6.427   6.488   7.057   7.072   7.321  43.166
 18 A"   37 A'   38 A'   39 A'   40 A'   41 A'                                 

 Beta MOs, Unrestricted
 -- Occupied --                  
-19.821  -1.635  -1.135  -0.992
  1 A'    2 A'    3 A'    4 A'                                                 
 -- Virtual --                   
 -0.467  -0.175  -0.100   0.141   0.190   0.195   0.228   0.331
  1 A"    5 A'    6 A'    7 A'    8 A'    9 A'    2 A"   10 A'                 
  0.349   0.426   0.452   0.549   0.800   0.955   1.013   1.468
 11 A'   12 A'    3 A"    4 A"   13 A'   14 A'   15 A'   16 A'                 
  1.486   1.520   1.562   1.609   1.835   2.107   2.290   2.433
  5 A"    6 A"   17 A'   18 A'   19 A'   20 A'    7 A"   21 A'                 
  2.799   2.902   2.997   3.012   3.037   3.121   3.252   3.341
  8 A"   22 A'    9 A"   23 A'   24 A'   25 A'   26 A'   27 A'                 
  3.383   3.390   3.748   3.835   3.837   3.911   4.342   4.354
 10 A"   11 A"   12 A"   13 A"   28 A'   29 A'   30 A'   31 A'                 
  4.503   4.696   5.291   5.837   6.096   6.113   6.232   6.262
 32 A'   33 A'   14 A"   34 A'   15 A"   16 A"   17 A"   35 A'                 
  6.270   6.475   6.575   7.072   7.089   7.336  43.194
 36 A'   18 A"   37 A'   38 A'   39 A'   40 A'   41 A'                         
 --------------------------------------------------------------

          Ground-State Mulliken Net Atomic Charges

     Atom                 Charge (a.u.)    Spin (a.u.)
  --------------------------------------------------------
      1 O                     0.304284       1.038762
      2 H                     0.347872      -0.019383
      3 H                     0.347843      -0.019379
  --------------------------------------------------------
  Sum of atomic charges =     1.000000
  Sum of spin   charges =     1.000000

 -----------------------------------------------------------------
                    Cartesian Multipole Moments
 -----------------------------------------------------------------
    Charge (ESU x 10^10)
                 4.8032
    Dipole Moment (Debye)
         X      -0.0002      Y       2.1652      Z      -0.0000
       Tot       2.1652
    Quadrupole Moments (Debye-Ang)
        XX      -2.0693     XY       0.0000     YY      -4.2615
        XZ      -0.0000     YZ       0.0000     ZZ      -4.6882
    Octopole Moments (Debye-Ang^2)
       XXX      -0.0005    XXY       1.8064    XYY       0.0001
       YYY       1.3806    XXZ       0.0000    XYZ      -0.0000
       YYZ      -0.0000    XZZ      -0.0000    YZZ       0.2191
       ZZZ      -0.0000
    Hexadecapole Moments (Debye-Ang^3)
      XXXX      -2.6967   XXXY      -0.0001   XXYY      -0.7249
      XYYY       0.0001   YYYY      -4.2542   XXXZ       0.0000
      XXYZ       0.0000   XYYZ       0.0000   YYYZ       0.0000
      XXZZ      -1.2560   XYZZ       0.0000   YYZZ      -1.1961
      XZZZ      -0.0000   YZZZ       0.0000   ZZZZ      -2.6448
 -----------------------------------------------------------------
Archival summary:
1\1\landau26\SP\ProcedureUnspecified\BasisUnspecified\12(1+,2)\malachi\SatMar2215:11:272025SatMar2215:11:272025\0\\#,ProcedureUnspecified,BasisUnspecified,\\1,2\O\H,1,0.958387\H,1,0.958431,2,104.75\\\@

 Total job time:  3.91s(wall), 40.26s(cpu) 
 Sat Mar 22 15:11:27 2025

        *************************************************************
        *                                                           *
        *  Thank you very much for using Q-Chem.  Have a nice day.  *
        *                                                           *
        *************************************************************


