                  Welcome to Q-Chem
     A Quantum Leap Into The Future Of Chemistry


 Q-Chem 5.3 (devel), Q-Chem, Inc., Pleasanton, CA (2020)

 Yihan Shao,  Zhengting Gan,  E. Epifanovsky,  A. T. B. Gilbert,  M. Wormit,  
 J. Kussmann,  A. W. Lange,  A. Behn,  Jia Deng,  Xintian Feng,  D. Ghosh,  
 M. Goldey,  P. R. Horn,  L. D. Jacobson,  I. Kaliman,  T. Kus,  A. Landau,  
 Jie Liu,  E. I. Proynov,  R. M. Richard,  R. P. Steele,  E. J. Sundstrom,  
 H. L. Woodcock III,  P. M. Zimmerman,  D. Zuev,  B. Alam,  B. Albrecht,  
 A. Aldossary,  E. Alguire,  S. A. Baeppler,  D. Barton,  Z. Benda,  
 Y. A. Bernard,  E. J. Berquist,  K. B. Bravaya,  H. Burton,  K. Carter-Fenk,  
 D. Casanova,  Chun-Min Chang,  Yunqing Chen,  A. Chien,  K. D. Closser,  
 M. P. Coons,  S. Coriani,  S. Dasgupta,  A. L. Dempwolff,  M. Diedenhofen,  
 Hainam Do,  R. G. Edgar,  Po-Tung Fang,  S. Faraji,  S. Fatehi,  
 Qingguo Feng,  J. Fosso-Tande,  J. Gayvert,  Qinghui Ge,  A. Ghysels,  
 G. Gidofalvi,  J. Gomes,  J. Gonthier,  S. Gulania,  A. Gunina,  D. Hait,  
 M. W. D. Hanson-Heine,  S. Hammes-Schiffer,  P. H. P. Harbach,  
 A. W. Hauser,  M. F. Herbst,  J. E. Herr,  E. G. Hohenstein,  Z. C. Holden,  
 S. Houck,  Kerwin Hui,  B. C. Huynh,  M. Ivanov,  T.-C. Jagau,  Hyunjun Ji,  
 B. Kaduk,  K. Khistyaev,  Jaehoon Kim,  P. Klunzinger,  K. Koh,  
 D. Kosenkov,  L. Koulias,  T. Kowalczyk,  C. M. Krauter,  A. Kunitsa,  
 Ka Un Lao,  A. Laurent,  K. V. Lawler,  Joonho Lee,  D. Lefrancois,  
 S. Lehtola,  D. S. Levine,  Yi-Pei Li,  You-Sheng Lin,  Fenglai Liu,  
 Kuan-Yu Liu,  E. Livshits,  M. Loipersberger,  A. Luenser,  A. Manjanath,  
 P. Manohar,  E. Mansoor,  S. F. Manzer,  Shan-Ping Mao,  Yuezhi Mao,  
 N. Mardirossian,  A. V. Marenich,  T. Markovich,  L. A. Martinez-Martinez,  
 S. A. Maurer,  N. J. Mayhall,  S. C. McKenzie,  J.-M. Mewes,  P. Morgante,  
 A. F. Morrison,  J. W. Mullinax,  K. Nanda,  T. S. Nguyen-Beck,  
 R. Olivares-Amaya,  K. J. Oosterbaan,  J. A. Parkhill,  S. K. Paul,  
 F. Pavosevic,  Zheng Pei,  T. M. Perrine,  F. Plasser,  P. Pokhilko,  
 S. Prager,  A. Prociuk,  E. Ramos,  B. Rana,  D. R. Rehn,  F. Rob,  
 E. Rossomme,  M. Scheurer,  M. Schneider,  N. Sergueev,  S. M. Sharada,  
 S. Sharma,  W. Skomorowski,  D. W. Small,  T. Stauch,  C. J. Stein,  
 T. Stein,  Yu-Chuan Su,  S. P. Veccham,  Zhen Tao,  A. J. W. Thom,  
 A. Tkatchenko,  T. Tsuchimochi,  N. M. Tubman,  L. Vogt,  M. L. Vidal,  
 O. Vydrov,  M. A. Watson,  J. Wenzel,  M. de Wergifosse,  T. A. Wesolowski,  
 A. White,  J. Witte,  A. Yamada,  Jun Yang,  K. Yao,  S. Yeganeh,  
 S. R. Yost,  Zhi-Qiang You,  A. Zech,  Igor Ying Zhang,  Xing Zhang,  
 Yan Zhao,  Ying Zhu,  B. R. Brooks,  G. K. L. Chan,  C. J. Cramer,  
 M. S. Gordon,  W. J. Hehre,  A. Klamt,  M. W. Schmidt,  C. D. Sherrill,  
 D. G. Truhlar,  A. Aspuru-Guzik,  R. Baer,  A. T. Bell,  N. A. Besley,  
 Jeng-Da Chai,  A. E. DePrince, III,  R. A. DiStasio Jr.,  A. Dreuw,  
 B. D. Dunietz,  T. R. Furlani,  Chao-Ping Hsu,  Yousung Jung,  Jing Kong,  
 D. S. Lambrecht,  WanZhen Liang,  C. Ochsenfeld,  V. A. Rassolov,  
 L. V. Slipchenko,  J. E. Subotnik,  T. Van Voorhis,  J. M. Herbert,  
 A. I. Krylov,  P. M. W. Gill,  M. Head-Gordon

 Contributors to earlier versions of Q-Chem not listed above: 
 R. D. Adamson,  B. Austin,  J. Baker,  G. J. O. Beran,  K. Brandhorst,  
 S. T. Brown,  E. F. C. Byrd,  A. K. Chakraborty,  C.-L. Cheng,  
 Siu Hung Chien,  D. M. Chipman,  D. L. Crittenden,  H. Dachsel,  
 R. J. Doerksen,  A. D. Dutoi,  L. Fusti-Molnar,  W. A. Goddard III,  
 A. Golubeva-Zadorozhnaya,  S. R. Gwaltney,  G. Hawkins,  A. Heyden,  
 S. Hirata,  G. Kedziora,  F. J. Keil,  C. Kelley,  Jihan Kim,  R. A. King,  
 R. Z. Khaliullin,  P. P. Korambath,  W. Kurlancheek,  A. M. Lee,  M. S. Lee,  
 S. V. Levchenko,  Ching Yeh Lin,  D. Liotard,  R. C. Lochan,  I. Lotan,  
 P. E. Maslen,  N. Nair,  D. P. O'Neill,  D. Neuhauser,  E. Neuscamman,  
 C. M. Oana,  R. Olson,  B. Peters,  R. Peverati,  P. A. Pieniazek,  
 Y. M. Rhee,  J. Ritchie,  M. A. Rohrdanz,  E. Rosta,  N. J. Russ,  
 H. F. Schaefer III,  N. E. Schultz,  N. Shenvi,  A. C. Simmonett,  A. Sodt,  
 D. Stuck,  K. S. Thanthiriwatte,  V. Vanovschi,  Tao Wang,  A. Warshel,  
 C. F. Williams,  Q. Wu,  X. Xu,  W. Zhang

 Please cite Q-Chem as follows:
 Y. Shao et al., Mol. Phys. 113, 184-215 (2015)
 DOI: 10.1080/00268976.2014.952696

 Q-Chem 5.3.2 for Intel X86 EM64T Linux

 Parts of Q-Chem use Armadillo 9.800.1 (Horizon Scraper).
 http://arma.sourceforge.net/

 Q-Chem begins on Sat Mar 22 15:10:48 2025  

Host: landau26
0

     Scratch files written to /home/scr/malachi//home/scr/malachi/scratch/input/P_429.in.j%//
Processing $rem in /opt/qchem5.4_omp/config/preferences:
Processing $rem in /usr/people/tamars/malachi/.qchemrc:

Checking the input file for inconsistencies... 	...done.

--------------------------------------------------------------
User input:
--------------------------------------------------------------
$molecule
    1 2
    O        -0.0589468554    0.2678084446    0.0000000000
    H        -0.9158854857   -0.1614307441    0.0000000000
    H         0.5742936224   -0.4515745405    0.0000000000
$end

$rem
    jobtype     SP
    exchange    gen
    lrc_dft     TRUE
    omega       429
    basis       def2-TZVPP
$end

$xc_functional
    C   PBE     1.0
    X   wPBE    0.8
    K           0.2
$end
--------------------------------------------------------------
 ----------------------------------------------------------------
             Standard Nuclear Orientation (Angstroms)
    I     Atom           X                Y                Z
 ----------------------------------------------------------------
    1      O       0.0000106350    -0.1170202440     0.0000000000
    2      H      -0.7591237599     0.4680481859     0.0000000000
    3      H       0.7590386795     0.4681137660    -0.0000000000
 ----------------------------------------------------------------
 Molecular Point Group                 Cs    NOp =  2
 Largest Abelian Subgroup              Cs    NOp =  2
 Nuclear Repulsion Energy =           9.18282577 hartrees
 There are        5 alpha and        4 beta electrons
 Requested basis set is def2-TZVPP
 There are 23 shells and 59 basis functions

 Total QAlloc Memory Limit   2000 MB
 Mega-Array Size       188 MB
 MEM_STATIC part       192 MB

                       Distance Matrix (Angstroms)
             O (  1)   H (  2)
   H (  2)  0.958431
   H (  3)  0.958387  1.518162

 A cutoff of  1.0D-08 yielded    276 shell pairs
 There are      1852 function pairs (      2337 Cartesian)
 Smallest overlap matrix eigenvalue = 2.25E-03

 Scale SEOQF with 1.000000e+00/1.000000e+00/1.000000e+00

 Standard Electronic Orientation quadrupole field applied
 Nucleus-field energy     =     0.0000000008 hartrees
 Guess from superposition of atomic densities
 Warning:  Energy on first SCF cycle will be non-variational
 SAD guess density has 10.000000 electrons

 -----------------------------------------------------------------------
  General SCF calculation program by
  Eric Jon Sundstrom, Paul Horn, Yuezhi Mao, Dmitri Zuev, Alec White,
  David Stuck, Shaama M.S., Shane Yost, Joonho Lee, David Small,
  Daniel Levine, Susi Lehtola, Hugh Burton, Evgeny Epifanovsky,
  Bang C. Huynh
 -----------------------------------------------------------------------
 Exchange:     0.2000 Hartree-Fock + 0.8000 wPBE + LR-HF
 Correlation:  1.0000 PBE
 Using SG-1 standard quadrature grid
 using 16 threads for integral computing
 -------------------------------------------------------
 OpenMP Integral computing Module                
 Release: version 1.0, May 2013, Q-Chem Inc. Pittsburgh 
 -------------------------------------------------------
 using 16 threads for integral computing
 -------------------------------------------------------
 OpenMP Integral computing Module                
 Release: version 1.0, May 2013, Q-Chem Inc. Pittsburgh 
 -------------------------------------------------------
 using 16 threads for integral computing
 -------------------------------------------------------
 OpenMP Integral computing Module                
 Release: version 1.0, May 2013, Q-Chem Inc. Pittsburgh 
 -------------------------------------------------------
 A unrestricted SCF calculation will be
 performed using DIIS
 SCF converges when DIIS error is below 1.0e-05
 ---------------------------------------
  Cycle       Energy         DIIS error
 ---------------------------------------
    1     -76.2929365262      2.76e-02  
    2     -75.9049074362      5.11e-03  
    3     -75.9422754468      2.68e-03  
    4     -75.9489590875      4.37e-04  
    5     -75.9492331334      1.01e-04  
    6     -75.9492565245      3.17e-05  
    7     -75.9492604786      8.48e-06  Convergence criterion met
 ---------------------------------------
 SCF time:   CPU 41.71s  wall 4.00s 
<S^2> =          0.752924093
 SCF   energy in the final basis set =      -75.9492604786
 Total energy in the final basis set =      -75.9492604786

 --------------------------------------------------------------
             Orbital Energies (a.u.) and Symmetries
 --------------------------------------------------------------

 Alpha MOs, Unrestricted
 -- Occupied --                  
-19.863  -1.731  -1.166  -1.049  -1.032
  1 A'    2 A'    3 A'    1 A"    4 A'                                         
 -- Virtual --                   
 -0.182  -0.102   0.144   0.175   0.183   0.189   0.328   0.337
  5 A'    6 A'    7 A'    2 A"    8 A'    9 A'   10 A'   11 A'                 
  0.415   0.436   0.532   0.805   0.944   1.012   1.439   1.469
 12 A'    3 A"    4 A"   13 A'   14 A'   15 A'    5 A"   16 A'                 
  1.472   1.522   1.589   1.837   2.106   2.179   2.406   2.798
  6 A"   17 A'   18 A'   19 A'   20 A'    7 A"   21 A'    8 A"                 
  2.899   2.999   3.003   3.019   3.132   3.265   3.354   3.380
 22 A'    9 A"   23 A'   24 A'   25 A'   26 A'   27 A'   10 A"                 
  3.393   3.743   3.807   3.839   3.911   4.328   4.342   4.482
 11 A"   12 A"   13 A"   28 A'   29 A'   30 A'   31 A'   32 A'                 
  4.675   5.250   5.803   6.016   6.023   6.166   6.240   6.242
 33 A'   14 A"   34 A'   15 A"   16 A"   17 A"   35 A'   36 A'                 
  6.438   6.500   7.069   7.084   7.333  43.182
 18 A"   37 A'   38 A'   39 A'   40 A'   41 A'                                 

 Beta MOs, Unrestricted
 -- Occupied --                  
-19.835  -1.646  -1.143  -1.000
  1 A'    2 A'    3 A'    4 A'                                                 
 -- Virtual --                   
 -0.459  -0.173  -0.097   0.144   0.194   0.198   0.232   0.335
  1 A"    5 A'    6 A'    7 A'    8 A'    9 A'    2 A"   10 A'                 
  0.352   0.429   0.456   0.553   0.805   0.959   1.018   1.474
 11 A'   12 A'    3 A"    4 A"   13 A'   14 A'   15 A'   16 A'                 
  1.494   1.528   1.568   1.617   1.844   2.116   2.300   2.442
  5 A"    6 A"   17 A'   18 A'   19 A'   20 A'    7 A"   21 A'                 
  2.808   2.910   3.006   3.021   3.046   3.130   3.262   3.349
  8 A"   22 A'    9 A"   23 A'   24 A'   25 A'   26 A'   27 A'                 
  3.392   3.398   3.756   3.843   3.846   3.919   4.351   4.364
 10 A"   11 A"   12 A"   13 A"   28 A'   29 A'   30 A'   31 A'                 
  4.512   4.705   5.303   5.848   6.108   6.126   6.242   6.274
 32 A'   33 A'   14 A"   34 A'   15 A"   16 A"   17 A"   35 A'                 
  6.282   6.486   6.587   7.085   7.101   7.348  43.209
 36 A'   18 A"   37 A'   38 A'   39 A'   40 A'   41 A'                         
 --------------------------------------------------------------

          Ground-State Mulliken Net Atomic Charges

     Atom                 Charge (a.u.)    Spin (a.u.)
  --------------------------------------------------------
      1 O                     0.304186       1.040169
      2 H                     0.347921      -0.020086
      3 H                     0.347892      -0.020083
  --------------------------------------------------------
  Sum of atomic charges =     1.000000
  Sum of spin   charges =     1.000000

 -----------------------------------------------------------------
                    Cartesian Multipole Moments
 -----------------------------------------------------------------
    Charge (ESU x 10^10)
                 4.8032
    Dipole Moment (Debye)
         X      -0.0002      Y       2.1713      Z      -0.0000
       Tot       2.1713
    Quadrupole Moments (Debye-Ang)
        XX      -2.0617     XY       0.0000     YY      -4.2562
        XZ      -0.0000     YZ       0.0000     ZZ      -4.6855
    Octopole Moments (Debye-Ang^2)
       XXX      -0.0005    XXY       1.8118    XYY       0.0001
       YYY       1.3864    XXZ       0.0000    XYZ      -0.0000
       YYZ      -0.0000    XZZ      -0.0000    YZZ       0.2201
       ZZZ      -0.0000
    Hexadecapole Moments (Debye-Ang^3)
      XXXX      -2.6799   XXXY      -0.0001   XXYY      -0.7187
      XYYY       0.0001   YYYY      -4.2428   XXXZ       0.0000
      XXYZ       0.0000   XYYZ       0.0000   YYYZ       0.0000
      XXZZ      -1.2531   XYZZ       0.0000   YYZZ      -1.1935
      XZZZ      -0.0000   YZZZ       0.0000   ZZZZ      -2.6392
 -----------------------------------------------------------------
Archival summary:
1\1\landau26\SP\ProcedureUnspecified\BasisUnspecified\12(1+,2)\malachi\SatMar2215:10:532025SatMar2215:10:532025\0\\#,ProcedureUnspecified,BasisUnspecified,\\1,2\O\H,1,0.958387\H,1,0.958431,2,104.75\\\@

 Total job time:  4.34s(wall), 44.56s(cpu) 
 Sat Mar 22 15:10:53 2025

        *************************************************************
        *                                                           *
        *  Thank you very much for using Q-Chem.  Have a nice day.  *
        *                                                           *
        *************************************************************


